Package: openmolcas
Binary: openmolcas, openmolcas-data
Version: 20.10-2
Maintainer: Debichem Team <debichem-devel@lists.alioth.debian.org>
Uploaders: Michael Banck <mbanck@debian.org>
Build-Depends: debhelper (>= 10), cmake (>= 3.0.2), gfortran, libopenblas64-openmp-dev, libjs-jquery, libjs-underscore, python3-pyparsing, python3-six, python3-sphinx, python3-sphinxcontrib.bibtex
Architecture: any all
Standards-Version: 4.1.3
Format: 3.0 (quilt)
Files:
 772cc59ec55ec36bb098f30036288b32 2210 openmolcas_20.10-2.dsc
 4e26537d5eecc7f790532b8be5fc0ad0 34663753 openmolcas_20.10.orig.tar.gz
 a44f7e4f103584b049a3748db4a969d6 27292 openmolcas_20.10-2.debian.tar.xz
Vcs-Browser: https://salsa.debian.org/debichem-team/openmolcas
Vcs-Git: https://salsa.debian.org/debichem-team/openmolcas.git
Checksums-Sha256:
 3ed10892c23792d6e5954355891fafb14fc5d91b295001294a4245881b9212b5 2210 openmolcas_20.10-2.dsc
 73f73beaebbcff5d02b5bb0748d07c5b8e81784fae6122729c7e7aeed730fe42 34663753 openmolcas_20.10.orig.tar.gz
 2415bfa374605569d54fb9b809f133d520f6521c85a9494d8eefba4a31c30eea 27292 openmolcas_20.10-2.debian.tar.xz
Homepage: https://gitlab.com/Molcas/OpenMolcas
Package-List: 
 openmolcas deb science optional arch=any
 openmolcas-data deb science optional arch=all
Testsuite: autopkgtest, autopkgtest-pkg-python
Directory: pool/main/o/openmolcas
Priority: extra
Section: misc
